file 211036 1663114282                                          
version 3
run General-0-20220913-22:54:02-13328
attr configname General
attr datetime 20220913-22:54:02
attr datetimef 20220913-225402
attr experiment General
attr inifile multi_path.ini
attr iterationvars ""
attr iterationvarsd ""
attr iterationvarsf ""
attr measurement ""
attr network TSN_multipath
attr processid 13328
attr repetition 0
attr replication #0
attr resultdir results
attr runnumber 0
attr seedset 0
config image-path ../../../images
config network TSN_multipath
config *.macForwardingTableConfigurator.typename ""
config *.*.eth[*].bitrate 100Mbps
config **.channel.per 0.2
config *.*.hasStreamRedundancy true
config *.source.numApps 2
config *.source.app[*].typename UdpSourceApp
config *.source.app[*].io.destAddress "\"destination\""
config *.source.app[*].source.packetNameFormat "\"%M-%m-%c\""
config *.source.app[*].source.displayStringTextFormat "\"sent %p pk (%l)\""
config *.source.app[*].source.packetLength 1200B
config *.source.app[*].source.productionInterval truncnormal(100us,50us)
config *.source.app[0].display-name app0
config *.source.app[1].display-name app1
config *.source.app[0].io.destPort 1000
config *.source.app[1].io.destPort 1001
config *.destination.numApps 2
config *.destination.app[*].typename UdpSinkApp
config *.destination.app[0].io.localPort 1000
config *.destination.app[1].io.localPort 1001
config *.destination.eth[*].address "\"0A-AA-12-34-56-78\""
config *.visualizer.infoVisualizer.modules "\"*.source.app[0].source or *.destination.app[0]\""
config *.*.bridging.streamRelay.typename StreamRelayLayer
config *.*.bridging.streamCoder.typename StreamCoderLayer
config *.streamRedundancyConfigurator.typename StreamRedundancyConfigurator
config *.streamRedundancyConfigurator.configuration "[{name: \"S1\", packetFilter: \"*-app1-*\", source: \"source\", destination: \"destination\",\n                                                 trees: [[[\"source\", \"s1\", \"s2a\", \"s3a\", \"destination\"]]]},\n\t{name: \"S2\", packetFilter: \"*-app0-*\", source: \"source\", destination: \"destination\",\n                                                 trees: [[[\"source\", \"s1\", \"s2b\", \"s3b\", \"destination\"]]]}]"
config *.visualizer.streamRedundancyConfigurationVisualizer.displayTrees true
config *.visualizer.streamRedundancyConfigurationVisualizer.lineColor "\"black\""

vector 0 TSN_multipath.source.eth[0].phyLayer.transmitter transmitting:vector ETV
attr interpolationmode sample-hold
attr recordingmode vector
attr source "count(transmissionStarted) - count(transmissionEnded)"
attr title "transmitting state"
attr type int
vector 1 TSN_multipath.source.udp passedUpPk:vector(count) ETV
attr interpolationmode none
attr recordingmode vector(count)
attr source packetSentToUpper
attr title "packets passed up, count"
vector 2 TSN_multipath.source.udp droppedPkWrongPort:vector(count) ETV
attr interpolationmode none
attr recordingmode vector(count)
attr source packetDropReasonIsNoPortFound(packetDropped)
attr title "packets dropped (wrong port), count"
vector 3 TSN_multipath.source.udp droppedPkBadChecksum:vector(count) ETV
attr interpolationmode none
attr recordingmode vector(count)
attr source packetDropReasonIsIncorrectlyReceived(packetDropped)
attr title "packets dropped (checksum error), count"
vector 4 TSN_multipath.s1.eth[0].phyLayer.transmitter transmitting:vector ETV
attr interpolationmode sample-hold
attr recordingmode vector
attr source "count(transmissionStarted) - count(transmissionEnded)"
attr title "transmitting state"
attr type int
vector 5 TSN_multipath.s1.eth[1].phyLayer.transmitter transmitting:vector ETV
attr interpolationmode sample-hold
attr recordingmode vector
attr source "count(transmissionStarted) - count(transmissionEnded)"
attr title "transmitting state"
attr type int
vector 6 TSN_multipath.s1.eth[2].phyLayer.transmitter transmitting:vector ETV
attr interpolationmode sample-hold
attr recordingmode vector
attr source "count(transmissionStarted) - count(transmissionEnded)"
attr title "transmitting state"
attr type int
vector 7 TSN_multipath.s2a.eth[0].phyLayer.transmitter transmitting:vector ETV
attr interpolationmode sample-hold
attr recordingmode vector
attr source "count(transmissionStarted) - count(transmissionEnded)"
attr title "transmitting state"
attr type int
vector 8 TSN_multipath.s2a.eth[1].phyLayer.transmitter transmitting:vector ETV
attr interpolationmode sample-hold
attr recordingmode vector
attr source "count(transmissionStarted) - count(transmissionEnded)"
attr title "transmitting state"
attr type int
vector 9 TSN_multipath.s2a.eth[2].phyLayer.transmitter transmitting:vector ETV
attr interpolationmode sample-hold
attr recordingmode vector
attr source "count(transmissionStarted) - count(transmissionEnded)"
attr title "transmitting state"
attr type int
vector 10 TSN_multipath.s3a.eth[0].phyLayer.transmitter transmitting:vector ETV
attr interpolationmode sample-hold
attr recordingmode vector
attr source "count(transmissionStarted) - count(transmissionEnded)"
attr title "transmitting state"
attr type int
vector 11 TSN_multipath.s3a.eth[1].phyLayer.transmitter transmitting:vector ETV
attr interpolationmode sample-hold
attr recordingmode vector
attr source "count(transmissionStarted) - count(transmissionEnded)"
attr title "transmitting state"
attr type int
vector 12 TSN_multipath.s2b.eth[0].phyLayer.transmitter transmitting:vector ETV
attr interpolationmode sample-hold
attr recordingmode vector
attr source "count(transmissionStarted) - count(transmissionEnded)"
attr title "transmitting state"
attr type int
vector 13 TSN_multipath.s2b.eth[1].phyLayer.transmitter transmitting:vector ETV
attr interpolationmode sample-hold
attr recordingmode vector
attr source "count(transmissionStarted) - count(transmissionEnded)"
attr title "transmitting state"
attr type int
vector 14 TSN_multipath.s2b.eth[2].phyLayer.transmitter transmitting:vector ETV
attr interpolationmode sample-hold
attr recordingmode vector
attr source "count(transmissionStarted) - count(transmissionEnded)"
attr title "transmitting state"
attr type int
vector 15 TSN_multipath.s3b.eth[0].phyLayer.transmitter transmitting:vector ETV
attr interpolationmode sample-hold
attr recordingmode vector
attr source "count(transmissionStarted) - count(transmissionEnded)"
attr title "transmitting state"
attr type int
vector 16 TSN_multipath.s3b.eth[1].phyLayer.transmitter transmitting:vector ETV
attr interpolationmode sample-hold
attr recordingmode vector
attr source "count(transmissionStarted) - count(transmissionEnded)"
attr title "transmitting state"
attr type int
vector 17 TSN_multipath.destination.eth[0].phyLayer.transmitter transmitting:vector ETV
attr interpolationmode sample-hold
attr recordingmode vector
attr source "count(transmissionStarted) - count(transmissionEnded)"
attr title "transmitting state"
attr type int
vector 18 TSN_multipath.destination.eth[1].phyLayer.transmitter transmitting:vector ETV
attr interpolationmode sample-hold
attr recordingmode vector
attr source "count(transmissionStarted) - count(transmissionEnded)"
attr title "transmitting state"
attr type int
vector 19 TSN_multipath.destination.udp passedUpPk:vector(count) ETV
attr interpolationmode none
attr recordingmode vector(count)
attr source packetSentToUpper
attr title "packets passed up, count"
vector 20 TSN_multipath.destination.udp droppedPkWrongPort:vector(count) ETV
attr interpolationmode none
attr recordingmode vector(count)
attr source packetDropReasonIsNoPortFound(packetDropped)
attr title "packets dropped (wrong port), count"
vector 21 TSN_multipath.destination.udp droppedPkBadChecksum:vector(count) ETV
attr interpolationmode none
attr recordingmode vector(count)
attr source packetDropReasonIsIncorrectlyReceived(packetDropped)
attr title "packets dropped (checksum error), count"
vector 22 TSN_multipath.source.app[0].source packetLengths:vector ETV
attr interpolationmode none
attr moduledisplaypath TSN_multipath.source.app0.source
attr recordingmode vector
attr source packetLength(packetPushed)
attr title "packet lengths"
attr unit b
vector 23 TSN_multipath.source.app[1].source packetLengths:vector ETV
attr interpolationmode none
attr moduledisplaypath TSN_multipath.source.app1.source
attr recordingmode vector
attr source packetLength(packetPushed)
attr title "packet lengths"
attr unit b
vector 24 TSN_multipath.source.app[0].io packetSent:vector(packetBytes) ETV
attr interpolationmode none
attr moduledisplaypath TSN_multipath.source.app0.io
attr recordingmode vector(packetBytes)
attr source packetSent
attr title "packets sent, packetBytes"
vector 25 TSN_multipath.source.app[1].io packetSent:vector(packetBytes) ETV
attr interpolationmode none
attr moduledisplaypath TSN_multipath.source.app1.io
attr recordingmode vector(packetBytes)
attr source packetSent
attr title "packets sent, packetBytes"
vector 26 TSN_multipath.source.udp packetSent:vector(packetBytes) ETV
attr interpolationmode none
attr recordingmode vector(packetBytes)
attr source packetSent
attr title "packets sent, packetBytes"
vector 27 TSN_multipath.source.bridging.streamIdentifier.identifier incomingPacketLengths:vector ETV
attr interpolationmode none
attr recordingmode vector
attr source "packetLength(merge(packetPushedIn, packetPulledIn))"
attr title "incoming packet lengths"
attr unit b
vector 28 TSN_multipath.source.bridging.streamIdentifier.identifier outgoingPacketLengths:vector ETV
attr interpolationmode none
attr recordingmode vector
attr source "packetLength(merge(packetPushedOut, packetPulledOut))"
attr title "outgoing packet lengths"
attr unit b
vector 29 TSN_multipath.source.bridging.streamCoder.encoder incomingPacketLengths:vector ETV
attr interpolationmode none
attr recordingmode vector
attr source "packetLength(merge(packetPushedIn, packetPulledIn))"
attr title "incoming packet lengths"
attr unit b
vector 30 TSN_multipath.source.bridging.streamCoder.encoder outgoingPacketLengths:vector ETV
attr interpolationmode none
attr recordingmode vector
attr source "packetLength(merge(packetPushedOut, packetPulledOut))"
attr title "outgoing packet lengths"
attr unit b
vector 31 TSN_multipath.source.ieee8021q.qTagHeaderInserter incomingPacketLengths:vector ETV
attr interpolationmode none
attr recordingmode vector
attr source "packetLength(merge(packetPushedIn, packetPulledIn))"
attr title "incoming packet lengths"
attr unit b
vector 32 TSN_multipath.source.ieee8021q.qTagHeaderInserter outgoingPacketLengths:vector ETV
attr interpolationmode none
attr recordingmode vector
attr source "packetLength(merge(packetPushedOut, packetPulledOut))"
attr title "outgoing packet lengths"
attr unit b
vector 33 TSN_multipath.source.ieee8021r.rTagHeaderInserter incomingPacketLengths:vector ETV
attr interpolationmode none
attr recordingmode vector
attr source "packetLength(merge(packetPushedIn, packetPulledIn))"
attr title "incoming packet lengths"
attr unit b
vector 34 TSN_multipath.source.ieee8021r.rTagHeaderInserter outgoingPacketLengths:vector ETV
attr interpolationmode none
attr recordingmode vector
attr source "packetLength(merge(packetPushedOut, packetPulledOut))"
attr title "outgoing packet lengths"
attr unit b
vector 35 TSN_multipath.source.ethernet.macHeaderInserter incomingPacketLengths:vector ETV
attr interpolationmode none
attr recordingmode vector
attr source "packetLength(merge(packetPushedIn, packetPulledIn))"
attr title "incoming packet lengths"
attr unit b
vector 36 TSN_multipath.source.ethernet.macHeaderInserter outgoingPacketLengths:vector ETV
attr interpolationmode none
attr recordingmode vector
attr source "packetLength(merge(packetPushedOut, packetPulledOut))"
attr title "outgoing packet lengths"
attr unit b
vector 37 TSN_multipath.source.ethernet.paddingInserter incomingPacketLengths:vector ETV
attr interpolationmode none
attr recordingmode vector
attr source "packetLength(merge(packetPushedIn, packetPulledIn))"
attr title "incoming packet lengths"
attr unit b
vector 38 TSN_multipath.source.ethernet.paddingInserter outgoingPacketLengths:vector ETV
attr interpolationmode none
attr recordingmode vector
attr source "packetLength(merge(packetPushedOut, packetPulledOut))"
attr title "outgoing packet lengths"
attr unit b
vector 39 TSN_multipath.source.ethernet.fcsInserter incomingPacketLengths:vector ETV
attr interpolationmode none
attr recordingmode vector
attr source "packetLength(merge(packetPushedIn, packetPulledIn))"
attr title "incoming packet lengths"
attr unit b
vector 40 TSN_multipath.source.ethernet.fcsInserter outgoingPacketLengths:vector ETV
attr interpolationmode none
attr recordingmode vector
attr source "packetLength(merge(packetPushedOut, packetPulledOut))"
attr title "outgoing packet lengths"
attr unit b
vector 41 TSN_multipath.source.eth[0].macLayer.queue incomingPacketLengths:vector ETV
attr interpolationmode none
attr recordingmode vector
attr source packetLength(packetPushStarted)
attr title "incoming packet lengths"
attr unit b
vector 42 TSN_multipath.source.eth[0].macLayer.queue queueingTime:vector ETV
attr interpolationmode none
attr recordingmode vector
attr source queueingTime(packetPulled)
attr title "queueing times"
attr unit s
vector 43 TSN_multipath.source.eth[0].macLayer.queue outgoingPacketLengths:vector ETV
attr interpolationmode none
attr recordingmode vector
attr source packetLength(packetPulled)
attr title "outgoing packet lengths"
attr unit b
vector 44 TSN_multipath.source.eth[0].macLayer.server incomingPacketLengths:vector ETV
attr interpolationmode none
attr recordingmode vector
attr source packetLength(packetPulled)
attr title "incoming packet lengths"
attr unit b
vector 45 TSN_multipath.source.eth[0].macLayer.server outgoingPacketLengths:vector ETV
attr interpolationmode none
attr recordingmode vector
attr source packetLength(packetPushed)
attr title "outgoing packet lengths"
attr unit b
vector 46 TSN_multipath.source.eth[0].macLayer.outboundEmitter incomingPacketLengths:vector ETV
attr interpolationmode none
attr recordingmode vector
attr source "packetLength(merge(packetPushedIn, packetPulledIn))"
attr title "incoming packet lengths"
attr unit b
vector 47 TSN_multipath.source.eth[0].macLayer.outboundEmitter outgoingPacketLengths:vector ETV
attr interpolationmode none
attr recordingmode vector
attr source "packetLength(merge(packetPushedOut, packetPulledOut))"
attr title "outgoing packet lengths"
attr unit b
vector 48 TSN_multipath.source.eth[0].phyLayer.phyHeaderInserter incomingPacketLengths:vector ETV
attr interpolationmode none
attr recordingmode vector
attr source "packetLength(merge(packetPushedIn, packetPulledIn))"
attr title "incoming packet lengths"
attr unit b
vector 49 TSN_multipath.source.eth[0].phyLayer.phyHeaderInserter outgoingPacketLengths:vector ETV
attr interpolationmode none
attr recordingmode vector
attr source "packetLength(merge(packetPushedOut, packetPulledOut))"
attr title "outgoing packet lengths"
attr unit b
vector 50 TSN_multipath.source.eth[0].phyLayer.outboundEmitter incomingPacketLengths:vector ETV
attr interpolationmode none
attr recordingmode vector
attr source "packetLength(merge(packetPushedIn, packetPulledIn))"
attr title "incoming packet lengths"
attr unit b
vector 51 TSN_multipath.source.eth[0].phyLayer.outboundEmitter outgoingPacketLengths:vector ETV
attr interpolationmode none
attr recordingmode vector
attr source "packetLength(merge(packetPushedOut, packetPulledOut))"
attr title "outgoing packet lengths"
attr unit b
vector 52 TSN_multipath.source.eth[0].macLayer.queue queueLength:vector ETV
attr autoWarmupFilter false
attr interpolationmode sample-hold
attr recordingmode vector
attr source "warmup(atomic(constant0(packetPushEnded) + count(packetPushStarted) - count(packetPulled) - count(packetRemoved) - count(packetDropped)))"
attr title "queue length"
attr unit pk
vector 53 TSN_multipath.source.eth[0].macLayer.queue queueBitLength:vector ETV
attr autoWarmupFilter false
attr interpolationmode sample-hold
attr recordingmode vector
attr source "warmup(atomic(constant0(packetPushEnded) + sum(packetLength(packetPushStarted)) - sum(packetLength(packetPulled)) - sum(packetLength(packetRemoved)) - sum(packetLength(packetDropped))))"
attr title "queue bit length"
attr unit b
vector 54 TSN_multipath.source.eth[0].phyLayer.transmitter transmissionTime:vector ETV
attr interpolationmode none
attr recordingmode vector
attr source packetDuration(transmissionEnded)
attr title "transmission time"
attr unit s
vector 55 TSN_multipath.s1.eth[2].phyLayer.receiver receptionTime:vector ETV
attr interpolationmode none
attr recordingmode vector
attr source packetDuration(receptionEnded)
attr title "reception time"
attr unit s
vector 56 TSN_multipath.s1.eth[2].phyLayer.inboundEmitter incomingPacketLengths:vector ETV
attr interpolationmode none
attr recordingmode vector
attr source "packetLength(merge(packetPushedIn, packetPulledIn))"
attr title "incoming packet lengths"
attr unit b
vector 57 TSN_multipath.s1.eth[2].phyLayer.inboundEmitter outgoingPacketLengths:vector ETV
attr interpolationmode none
attr recordingmode vector
attr source "packetLength(merge(packetPushedOut, packetPulledOut))"
attr title "outgoing packet lengths"
attr unit b
vector 58 TSN_multipath.s1.eth[2].phyLayer.phyHeaderChecker incomingPacketLengths:vector ETV
attr interpolationmode none
attr recordingmode vector
attr source "packetLength(merge(packetPushedIn, packetPulledIn))"
attr title "incoming packet lengths"
attr unit b
vector 59 TSN_multipath.s1.eth[2].phyLayer.phyHeaderChecker outgoingPacketLengths:vector ETV
attr interpolationmode none
attr recordingmode vector
attr source "packetLength(merge(packetPushedOut, packetPulledOut))"
attr title "outgoing packet lengths"
attr unit b
vector 60 TSN_multipath.s1.eth[2].macLayer.inboundEmitter incomingPacketLengths:vector ETV
attr interpolationmode none
attr recordingmode vector
attr source "packetLength(merge(packetPushedIn, packetPulledIn))"
attr title "incoming packet lengths"
attr unit b
vector 61 TSN_multipath.s1.eth[2].macLayer.inboundEmitter outgoingPacketLengths:vector ETV
attr interpolationmode none
attr recordingmode vector
attr source "packetLength(merge(packetPushedOut, packetPulledOut))"
attr title "outgoing packet lengths"
attr unit b
vector 62 TSN_multipath.s1.eth[2].macLayer.fcsChecker incomingPacketLengths:vector ETV
attr interpolationmode none
attr recordingmode vector
attr source "packetLength(merge(packetPushedIn, packetPulledIn))"
attr title "incoming packet lengths"
attr unit b
vector 63 TSN_multipath.s1.eth[2].macLayer.fcsChecker outgoingPacketLengths:vector ETV
attr interpolationmode none
attr recordingmode vector
attr source "packetLength(merge(packetPushedOut, packetPulledOut))"
attr title "outgoing packet lengths"
attr unit b
vector 64 TSN_multipath.s1.ethernet.fcsChecker incomingPacketLengths:vector ETV
attr interpolationmode none
attr recordingmode vector
attr source "packetLength(merge(packetPushedIn, packetPulledIn))"
attr title "incoming packet lengths"
attr unit b
vector 65 TSN_multipath.s1.ethernet.fcsChecker outgoingPacketLengths:vector ETV
attr interpolationmode none
attr recordingmode vector
attr source "packetLength(merge(packetPushedOut, packetPulledOut))"
attr title "outgoing packet lengths"
attr unit b
vector 66 TSN_multipath.s1.ethernet.macHeaderChecker incomingPacketLengths:vector ETV
attr interpolationmode none
attr recordingmode vector
attr source "packetLength(merge(packetPushedIn, packetPulledIn))"
attr title "incoming packet lengths"
attr unit b
vector 67 TSN_multipath.s1.ethernet.macHeaderChecker outgoingPacketLengths:vector ETV
attr interpolationmode none
attr recordingmode vector
attr source "packetLength(merge(packetPushedOut, packetPulledOut))"
attr title "outgoing packet lengths"
attr unit b
vector 68 TSN_multipath.s1.ieee8021r.rTagHeaderChecker incomingPacketLengths:vector ETV
attr interpolationmode none
attr recordingmode vector
attr source "packetLength(merge(packetPushedIn, packetPulledIn))"
attr title "incoming packet lengths"
attr unit b
vector 69 TSN_multipath.s1.ieee8021r.rTagHeaderChecker outgoingPacketLengths:vector ETV
attr interpolationmode none
attr recordingmode vector
attr source "packetLength(merge(packetPushedOut, packetPulledOut))"
attr title "outgoing packet lengths"
attr unit b
vector 70 TSN_multipath.s1.ieee8021q.qTagHeaderChecker incomingPacketLengths:vector ETV
attr interpolationmode none
attr recordingmode vector
attr source "packetLength(merge(packetPushedIn, packetPulledIn))"
attr title "incoming packet lengths"
attr unit b
vector 71 TSN_multipath.s1.ieee8021q.qTagHeaderChecker outgoingPacketLengths:vector ETV
attr interpolationmode none
attr recordingmode vector
attr source "packetLength(merge(packetPushedOut, packetPulledOut))"
attr title "outgoing packet lengths"
attr unit b
vector 72 TSN_multipath.s1.bridging.interfaceRelay.learner incomingPacketLengths:vector ETV
attr interpolationmode none
attr recordingmode vector
attr source "packetLength(merge(packetPushedIn, packetPulledIn))"
attr title "incoming packet lengths"
attr unit b
vector 73 TSN_multipath.s1.bridging.interfaceRelay.learner outgoingPacketLengths:vector ETV
attr interpolationmode none
attr recordingmode vector
attr source "packetLength(merge(packetPushedOut, packetPulledOut))"
attr title "outgoing packet lengths"
attr unit b
vector 74 TSN_multipath.s1.bridging.streamCoder.decoder incomingPacketLengths:vector ETV
attr interpolationmode none
attr recordingmode vector
attr source "packetLength(merge(packetPushedIn, packetPulledIn))"
attr title "incoming packet lengths"
attr unit b
vector 75 TSN_multipath.s1.bridging.streamCoder.decoder outgoingPacketLengths:vector ETV
attr interpolationmode none
attr recordingmode vector
attr source "packetLength(merge(packetPushedOut, packetPulledOut))"
attr title "outgoing packet lengths"
attr unit b
vector 76 TSN_multipath.s1.bridging.streamRelay.merger incomingPacketLengths:vector ETV
attr interpolationmode none
attr recordingmode vector
attr source "packetLength(merge(packetPushedIn, packetPulledIn))"
attr title "incoming packet lengths"
attr unit b
vector 77 TSN_multipath.s1.bridging.streamRelay.merger outgoingPacketLengths:vector ETV
attr interpolationmode none
attr recordingmode vector
attr source "packetLength(merge(packetPushedOut, packetPulledOut))"
attr title "outgoing packet lengths"
attr unit b
vector 78 TSN_multipath.s1.bridging.directionReverser.reverser incomingPacketLengths:vector ETV
attr interpolationmode none
attr recordingmode vector
attr source "packetLength(merge(packetPushedIn, packetPulledIn))"
attr title "incoming packet lengths"
attr unit b
vector 79 TSN_multipath.s1.bridging.directionReverser.reverser outgoingPacketLengths:vector ETV
attr interpolationmode none
attr recordingmode vector
attr source "packetLength(merge(packetPushedOut, packetPulledOut))"
attr title "outgoing packet lengths"
attr unit b
vector 80 TSN_multipath.s1.bridging.streamIdentifier.identifier incomingPacketLengths:vector ETV
attr interpolationmode none
attr recordingmode vector
attr source "packetLength(merge(packetPushedIn, packetPulledIn))"
attr title "incoming packet lengths"
attr unit b
vector 81 TSN_multipath.s1.bridging.streamIdentifier.identifier outgoingPacketLengths:vector ETV
attr interpolationmode none
attr recordingmode vector
attr source "packetLength(merge(packetPushedOut, packetPulledOut))"
attr title "outgoing packet lengths"
attr unit b
vector 82 TSN_multipath.s1.bridging.streamCoder.encoder incomingPacketLengths:vector ETV
attr interpolationmode none
attr recordingmode vector
attr source "packetLength(merge(packetPushedIn, packetPulledIn))"
attr title "incoming packet lengths"
attr unit b
vector 83 TSN_multipath.s1.bridging.streamCoder.encoder outgoingPacketLengths:vector ETV
attr interpolationmode none
attr recordingmode vector
attr source "packetLength(merge(packetPushedOut, packetPulledOut))"
attr title "outgoing packet lengths"
attr unit b
vector 84 TSN_multipath.s1.ieee8021q.qTagHeaderInserter incomingPacketLengths:vector ETV
attr interpolationmode none
attr recordingmode vector
attr source "packetLength(merge(packetPushedIn, packetPulledIn))"
attr title "incoming packet lengths"
attr unit b
vector 85 TSN_multipath.s1.ieee8021q.qTagHeaderInserter outgoingPacketLengths:vector ETV
attr interpolationmode none
attr recordingmode vector
attr source "packetLength(merge(packetPushedOut, packetPulledOut))"
attr title "outgoing packet lengths"
attr unit b
vector 86 TSN_multipath.s1.ieee8021r.rTagHeaderInserter incomingPacketLengths:vector ETV
attr interpolationmode none
attr recordingmode vector
attr source "packetLength(merge(packetPushedIn, packetPulledIn))"
attr title "incoming packet lengths"
attr unit b
vector 87 TSN_multipath.s1.ieee8021r.rTagHeaderInserter outgoingPacketLengths:vector ETV
attr interpolationmode none
attr recordingmode vector
attr source "packetLength(merge(packetPushedOut, packetPulledOut))"
attr title "outgoing packet lengths"
attr unit b
vector 88 TSN_multipath.s1.ethernet.macHeaderInserter incomingPacketLengths:vector ETV
attr interpolationmode none
attr recordingmode vector
attr source "packetLength(merge(packetPushedIn, packetPulledIn))"
attr title "incoming packet lengths"
attr unit b
vector 89 TSN_multipath.s1.ethernet.macHeaderInserter outgoingPacketLengths:vector ETV
attr interpolationmode none
attr recordingmode vector
attr source "packetLength(merge(packetPushedOut, packetPulledOut))"
attr title "outgoing packet lengths"
attr unit b
vector 90 TSN_multipath.s1.ethernet.paddingInserter incomingPacketLengths:vector ETV
attr interpolationmode none
attr recordingmode vector
attr source "packetLength(merge(packetPushedIn, packetPulledIn))"
attr title "incoming packet lengths"
attr unit b
vector 91 TSN_multipath.s1.ethernet.paddingInserter outgoingPacketLengths:vector ETV
attr interpolationmode none
attr recordingmode vector
attr source "packetLength(merge(packetPushedOut, packetPulledOut))"
attr title "outgoing packet lengths"
attr unit b
vector 92 TSN_multipath.s1.ethernet.fcsInserter incomingPacketLengths:vector ETV
attr interpolationmode none
attr recordingmode vector
attr source "packetLength(merge(packetPushedIn, packetPulledIn))"
attr title "incoming packet lengths"
attr unit b
vector 93 TSN_multipath.s1.ethernet.fcsInserter outgoingPacketLengths:vector ETV
attr interpolationmode none
attr recordingmode vector
attr source "packetLength(merge(packetPushedOut, packetPulledOut))"
attr title "outgoing packet lengths"
attr unit b
vector 94 TSN_multipath.s1.eth[1].macLayer.queue incomingPacketLengths:vector ETV
attr interpolationmode none
attr recordingmode vector
attr source packetLength(packetPushStarted)
attr title "incoming packet lengths"
attr unit b
vector 95 TSN_multipath.s1.eth[1].macLayer.queue queueingTime:vector ETV
attr interpolationmode none
attr recordingmode vector
attr source queueingTime(packetPulled)
attr title "queueing times"
attr unit s
vector 96 TSN_multipath.s1.eth[1].macLayer.queue outgoingPacketLengths:vector ETV
attr interpolationmode none
attr recordingmode vector
attr source packetLength(packetPulled)
attr title "outgoing packet lengths"
attr unit b
vector 97 TSN_multipath.s1.eth[1].macLayer.server incomingPacketLengths:vector ETV
attr interpolationmode none
attr recordingmode vector
attr source packetLength(packetPulled)
attr title "incoming packet lengths"
attr unit b
vector 98 TSN_multipath.s1.eth[1].macLayer.server outgoingPacketLengths:vector ETV
attr interpolationmode none
attr recordingmode vector
attr source packetLength(packetPushed)
attr title "outgoing packet lengths"
attr unit b
vector 99 TSN_multipath.s1.eth[1].macLayer.outboundEmitter incomingPacketLengths:vector ETV
attr interpolationmode none
attr recordingmode vector
attr source "packetLength(merge(packetPushedIn, packetPulledIn))"
attr title "incoming packet lengths"
attr unit b
vector 100 TSN_multipath.s1.eth[1].macLayer.outboundEmitter outgoingPacketLengths:vector ETV
attr interpolationmode none
attr recordingmode vector
attr source "packetLength(merge(packetPushedOut, packetPulledOut))"
attr title "outgoing packet lengths"
attr unit b
vector 101 TSN_multipath.s1.eth[1].phyLayer.phyHeaderInserter incomingPacketLengths:vector ETV
attr interpolationmode none
attr recordingmode vector
attr source "packetLength(merge(packetPushedIn, packetPulledIn))"
attr title "incoming packet lengths"
attr unit b
vector 102 TSN_multipath.s1.eth[1].phyLayer.phyHeaderInserter outgoingPacketLengths:vector ETV
attr interpolationmode none
attr recordingmode vector
attr source "packetLength(merge(packetPushedOut, packetPulledOut))"
attr title "outgoing packet lengths"
attr unit b
vector 103 TSN_multipath.s1.eth[1].phyLayer.outboundEmitter incomingPacketLengths:vector ETV
attr interpolationmode none
attr recordingmode vector
attr source "packetLength(merge(packetPushedIn, packetPulledIn))"
attr title "incoming packet lengths"
attr unit b
vector 104 TSN_multipath.s1.eth[1].phyLayer.outboundEmitter outgoingPacketLengths:vector ETV
attr interpolationmode none
attr recordingmode vector
attr source "packetLength(merge(packetPushedOut, packetPulledOut))"
attr title "outgoing packet lengths"
attr unit b
vector 105 TSN_multipath.s1.eth[1].macLayer.queue queueLength:vector ETV